Program Version,EnergyPlus, Version 9.3.0-60e3a1f2d5 (No OpenGL), YMD=2023.05.28 15:53
1,5,Environment Title[],Latitude[deg],Longitude[deg],Time Zone[],Elevation[m]
2,8,Day of Simulation[],Month[],Day of Month[],DST Indicator[1=yes 0=no],Hour[],StartMinute[],EndMinute[],DayType
3,5,Cumulative Day of Simulation[],Month[],Day of Month[],DST Indicator[1=yes 0=no],DayType  ! When Daily Report Variables Requested
4,2,Cumulative Days of Simulation[],Month[]  ! When Monthly Report Variables Requested
5,1,Cumulative Days of Simulation[] ! When Run Period Report Variables Requested
6,1,Calendar Year of Simulation[] ! When Annual Report Variables Requested
7,1,Environment,Site Outdoor Air Drybulb Temperature [C] !TimeStep
1151,1,EMS,Cooling Controlled Load [] !TimeStep
1152,1,EMS,Heating Controlled Load [] !TimeStep
1153,1,EMS,Cooling Schedule Temperature [] !TimeStep
1154,1,EMS,Heating Schedule Temperature [] !TimeStep
1155,1,EMS,Cooling Setpoint Temperature [] !TimeStep
1156,1,EMS,Heating Setpoint Temperature [] !TimeStep
1157,1,EMS,Cooling Current Temperature [] !TimeStep
1158,1,EMS,Heating Current Temperature [] !TimeStep
1159,1,EMS,Cooling Power State [] !TimeStep
1160,1,EMS,Heating Power State [] !TimeStep
1165,1,EMS,Heating Volume [] !TimeStep
1166,1,EMS,Cooling Volume [] !TimeStep
1167,1,EMS,Indoor Air Temperature [] !TimeStep
1168,1,EMS,Occupant Count [] !TimeStep
2520,1,Whole Building,Facility Total HVAC Electric Demand Power [W] !TimeStep
2521,1,Whole Building,Facility Total Electric Demand Power [W] !TimeStep
2522,1,Facility,Facility Thermal Comfort ASHRAE 55 Simple Model Summer or Winter Clothes Not Comfortable Time [hr] !TimeStep
End of Data Dictionary
1,RUNPERIOD 1,  32.13,-110.95,  -7.00, 777.00
2,1, 7, 1, 1, 1, 0.00, 5.00,Monday
7,30.5
1151,1258.3924299926503
1152,0.0
1153,80.6
1154,60.8
1155,80.6
1156,60.8
1157,78.67455449698966
1158,78.67455449698966
1159,1.0
1160,0.0
1165,0.0
1166,1260.0
1167,78.67455449698966
1168,0.0
2522,0.0
2520,0.000007509401301000446
2521,48784.43478591596
2,1, 7, 1, 1, 1, 5.00,10.00,Monday
7,30.400000000000003
1151,0.0
1152,0.0
1153,80.6
1154,60.8
1155,80.6
1156,60.8
1157,79.18275057036414
1158,79.18275057036414
1159,0.0
1160,0.0
1165,0.0
1166,0.0
1167,79.18275057036414
1168,0.0
2522,0.0
2520,0.0000074779355017037068
2521,48783.91600182571
2,1, 7, 1, 1, 1,10.00,15.00,Monday
7,30.300000000000006
1151,0.0
1152,0.0
1153,80.6
1154,60.8
1155,80.6
1156,60.8
1157,79.51157056991826
1158,79.51157056991826
1159,0.0
1160,0.0
1165,0.0
1166,0.0
1167,79.51157056991826
1168,0.0
2522,0.0
2520,0.000007454674397381563
2521,48783.37365195906
2,1, 7, 1, 1, 1,15.00,20.00,Monday
7,30.200000000000004
1151,0.0
1152,0.0
1153,80.6
1154,60.8
1155,80.34658849449247
1156,61.05341150550754
1157,79.78886672202448
1158,79.78886672202448
1159,0.0
1160,0.0
1165,0.0
1166,0.0
1167,79.78886672202448
1168,0.0
2522,0.0
2520,0.000007437782217134866
2521,48782.68423968848
2,1, 7, 1, 1, 1,20.00,25.00,Monday
7,30.099999999999999
1151,0.0
1152,0.0
1153,80.6
1154,60.8
1155,80.35271199475261
1156,61.047288005247398
1157,79.93823921899325
1158,79.93823921899325
1159,0.0
1160,0.0
1165,0.0
1166,0.0
1167,79.93823921899325
1168,0.0
2522,0.0
2520,0.000007426284282211937
2521,48781.59739404958
2,1, 7, 1, 1, 1,25.00,30.00,Monday
7,30.0
1151,0.0
1152,0.0
1153,80.6
1154,60.8
1155,80.35070851403907
1156,61.04929148596091
1157,80.04204917361679
1158,80.04204917361679
1159,0.0
1160,0.0
1165,0.0
1166,0.0
1167,80.04204917361679
1168,0.0
2522,0.0
2520,0.000007419242716621394
2521,48780.44009082814
2,1, 7, 1, 1, 1,30.00,35.00,Monday
7,29.9
1151,0.0
1152,0.0
1153,80.6
1154,60.8
1155,80.36826461623545
1156,61.031735383764559
1157,80.11342542117885
1158,80.11342542117885
1159,0.0
1160,0.0
1165,0.0
1166,0.0
1167,80.11342542117885
1168,0.0
2522,0.0
2520,0.00000741590062032653
2521,48779.23537413145
2,1, 7, 1, 1, 1,35.00,40.00,Monday
7,29.799999999999998
1151,0.0
1152,0.0
1153,80.6
1154,60.8
1155,80.37299934994707
1156,61.02700065005293
1157,80.16212786378186
1158,80.16212786378186
1159,0.0
1160,0.0
1165,0.0
1166,0.0
1167,80.16212786378186
1168,0.0
2522,0.0
2520,5214.171147869744
2521,53992.15611957639
2,1, 7, 1, 1, 1,40.00,45.00,Monday
7,29.699999999999997
1151,1148.8622407145243
1152,0.0
1153,80.6
1154,60.8
1155,80.35073400552756
1156,61.04926599447244
1157,80.14783823535027
1158,80.14783823535027
1159,1.0
1160,0.0
1165,0.0
1166,1260.0
1167,80.14783823535027
1168,0.0
2522,0.0
2520,4622.459654473785
2521,53399.15091326492
2,1, 7, 1, 1, 1,45.00,50.00,Monday
7,29.599999999999999
1151,2144.0977198564548
1152,0.0
1153,80.6
1154,60.8
1155,80.34882939670409
1156,61.051170603295918
1157,80.17341083388311
1158,80.17341083388311
1159,1.0
1160,0.0
1165,0.0
1166,1260.0
1167,80.17341083388311
1168,0.0
2522,0.0
2520,4555.155435399872
2521,53330.57080914129
2,1, 7, 1, 1, 1,50.00,55.00,Monday
7,29.5
1151,2076.7935007780586
1152,0.0
1153,80.6
1154,60.8
1155,80.35400847011657
1156,61.04599152988344
1157,80.18562230847542
1158,80.18562230847542
1159,1.0
1160,0.0
1165,0.0
1166,1260.0
1167,80.18562230847542
1168,0.0
2522,0.0
2520,4505.3088931774259
2521,53279.339034254735
2,1, 7, 1, 1, 1,55.00,60.00,Monday
7,29.4
1151,2026.9469585493069
1152,0.0
1153,80.6
1154,60.8
1155,80.34926662834178
1156,61.05073337165824
1157,80.19099742839807
1158,80.19099742839807
1159,1.0
1160,0.0
1165,0.0
1166,1260.0
1167,80.19099742839807
1168,0.0
2522,0.0
2520,4447.737242730397
2521,53219.80036359056
2,1, 7, 1, 1, 2, 0.00, 5.00,Monday
7,29.291666666666666
1151,1969.375308094434
1152,0.0
1153,80.6
1154,60.8
1155,80.35369424916849
1156,61.04630575083151
1157,80.19162640863189
1158,80.19162640863189
1159,1.0
1160,0.0
1165,0.0
1166,1260.0
1167,80.19162640863189
1168,0.0
2522,0.0
2520,4378.6368535039059
2521,53148.646512540145
2,1, 7, 1, 1, 2, 5.00,10.00,Monday
7,29.183333333333335
1151,1900.2749188587978
1152,0.0
1153,80.6
1154,60.8
1155,80.36939957086696
1156,61.030600429133048
1157,80.18877392794758
1158,80.18877392794758
1159,1.0
1160,0.0
1165,0.0
1166,1260.0
1167,80.18877392794758
1168,0.0
2522,0.0
2520,0.000007456015484226341
2521,48767.916178440944
2,1, 7, 1, 1, 2,10.00,15.00,Monday
7,29.074999999999997
1151,0.0
1152,0.0
1153,80.6
1154,60.8
1155,80.36305717290407
1156,61.036942827095938
1157,80.19069545848379
1158,80.19069545848379
1159,0.0
1160,0.0
1165,0.0
1166,0.0
1167,80.19069545848379
1168,0.0
2522,0.0
2520,0.000007467201505293054
2521,48765.82387005234
2,1, 7, 1, 1, 2,15.00,20.00,Monday
7,28.96666666666667
1151,0.0
1152,0.0
1153,80.6
1154,60.8
1155,80.36616586209778
1156,61.03383413790222
1157,80.18733154210725
1158,80.18733154210725
1159,0.0
1160,0.0
1165,0.0
1166,0.0
1167,80.18733154210725
1168,0.0
2522,0.0
2520,0.0000074791865246609818
2521,48763.73054582304
2,1, 7, 1, 1, 2,20.00,25.00,Monday
7,28.858333333333336
1151,0.0
1152,0.0
1153,80.6
1154,60.8
1155,80.35445138288572
1156,61.04554861711429
1157,80.1799396173538
1158,80.1799396173538
1159,0.0
1160,0.0
1165,0.0
1166,0.0
1167,80.1799396173538
1168,0.0
2522,0.0
2520,0.000007491854150047811
2521,48761.63650585252
2,1, 7, 1, 1, 2,25.00,30.00,Monday
7,28.75
1151,0.0
1152,0.0
1153,80.6
1154,60.8
1155,80.35248499865445
1156,61.047515001345548
1157,80.16935904083832
1158,80.16935904083832
1159,0.0
1160,0.0
1165,0.0
1166,0.0
1167,80.16935904083832
1168,0.0
2522,0.0
2520,0.0000075051066109179109
2521,48759.542888191594
2,1, 7, 1, 1, 2,30.00,35.00,Monday
7,28.641666666666667
1151,0.0
1152,0.0
1153,80.6
1154,60.8
1155,80.36169401271704
1156,61.03830598728294
1157,80.15620594918488
1158,80.15620594918488
1159,0.0
1160,0.0
1165,0.0
1166,0.0
1167,80.15620594918488
1168,0.0
2522,0.0
2520,0.0000075188617118152999
2521,48757.44997342273
2,1, 7, 1, 1, 2,35.00,40.00,Monday
7,28.533333333333336
1151,0.0
1152,0.0
1153,80.6
1154,60.8
1155,80.37561070272459
1156,61.02438929727541
1157,80.14096932573119
1158,80.14096932573119
1159,0.0
1160,0.0
1165,0.0
1166,0.0
1167,80.14096932573119
1168,0.0
2522,0.0
2520,0.0000075330503101079838
2521,48755.35762739113
2,1, 7, 1, 1, 2,40.00,45.00,Monday
7,28.425000000000006
1151,0.0
1152,0.0
1153,80.6
1154,60.8
1155,80.36108546030394
1156,61.038914539696069
1157,80.12395911485354
1158,80.12395911485354
1159,0.0
1160,0.0
1165,0.0
1166,0.0
